
#=======================================================================
data_global
#=======================================================================

_audit_creation_method                   'Jana2000 Version : 08/11/2007'


# 1. PROCESSING SUMMARY (IUCr Office Use Only)

_journal_date_recd_electronic            ?
_journal_date_to_coeditor                ?
_journal_date_from_coeditor              ?
_journal_date_accepted                   ?
_journal_date_printers_first             ?
_journal_date_printers_final             ?
_journal_date_proofs_out                 ?
_journal_date_proofs_in                  ?
_journal_coeditor_name                   ?
_journal_coeditor_code                   ?
_journal_coeditor_notes                 
; ?
;
_journal_techeditor_code                 ?
_journal_paper_category                  ?
_journal_techeditor_notes               
; ?
;
_journal_coden_ASTM                      ?
_journal_name_full                       'Acta Crystallographica Section C'
_journal_year                            ?
_journal_volume                          ?
_journal_issue                           ?
_journal_page_first                      ?
_journal_page_last                       ?
_journal_suppl_publ_number               ?
_journal_suppl_publ_pages                ?

#=======================================================================

# 2. SUBMISSION DETAILS

_publ_contact_author_name                ?
_publ_contact_author_address            
; ?
;
_publ_contact_author_email               ?
_publ_contact_author_fax                 ?
_publ_contact_author_phone               ?

_publ_requested_journal                  'Acta Crystallographica Section C'
_publ_requested_category                 ?

_publ_contact_letter                    
; ?
;

#=======================================================================

# 3. TITLE AND AUTHOR LIST

_publ_section_title                     
; ?
;
_publ_section_title_footnote            
; ?
;
loop_
 _publ_author_name                                           
 _publ_author_footnote                                       
 _publ_author_address                                        
 ?       # name 
; ?      # footnote
;
; ?      # address
;

#=======================================================================

# 4. TEXT

_publ_section_synopsis                  
; ?
;
_publ_section_abstract                  
; ?
;
_publ_section_comment                   
; ?
;
_publ_section_introduction              
; ?
;
_publ_section_experimental              
; ?
;
_publ_section_exptl_prep                
; ?
;
_publ_section_exptl_refinement          
; ?
;
_publ_section_exptl_solution            
; ?
;
_publ_section_discussion                
; ?
;
_publ_section_acknowledgements          
; ?
;
_publ_section_references                
;
Becker, P. J. & Coppens, P. (1974). Acta Cryst. A30, 129-153.
 
Petricek, V., Dusek, M. & Palatinus L. (2000). Jana2000.
Structure Determination Software Programs.
Institute of Physics, Praha, Czech Republic.

# enable this reference if Diamond ver. 2 was used for visualization
#Brandenburg, K. (1999). DIAMOND. Version. 2.1c.
#Crystal Impact GbR, Bonn, Germany.

# enable this reference if Diamond ver. 3 was used for visualization
#Brandenburg, K. & Putz, H. (2005). DIAMOND Version 3.
#Crystal Impact GbR, Postfach 1251, D-53002 Bonn, Germany.

# enable this reference if SIR97 was used for solving of the structure
#Altomare, A., Burla, M. C., Camalli, M., Cascarano, G., Giacovazzo, C.,
#Guagliardi, A., Moliterni, A. G. G., Polidori, G., Spagna, R. (1997).
#SIR97. A Package for Crystal Structure Solution by Direct Methods
#and Refinement, Bari, Rome, Italy.

# use this reference if SIR2002 was used for solving of the structure
#Burla, M.C., Camalli, M., Carrozzini, B., Cascarano, G., Giacovazzo, C.,
#Polidori, G., Spagna, R.
#SIR2002: the program, J. Appl. Cryst, (2003). 36, 1103

# enable this reference if bond valences were calculated
#Brown, I. D. (1996). J. Appl. Cryst. 29, 479-480.

# enable this reference if Xshape wase used for crystal shape refinement
#Stoe & Cie (1998). X-SHAPE. Stoe & Cie, Darmstadt, Germany.


# enable this reference if Flack coefficient was refined
#Flack, H. D. (1983). Acta Cryst. A39, 876-881.

;
_publ_section_figure_captions           
; ?
;
_publ_section_table_legends             
; ?
;

#=======================================================================
data_(I)
#=======================================================================

# 5. CHEMICAL DATA

_chemical_name_systematic               
; ?
;
_chemical_name_common                    ?
_chemical_formula_moiety                 ?
_chemical_formula_structural             ?
_chemical_formula_analytical             ?
_chemical_formula_iupac                  ?
_chemical_formula_sum                    'As4 Cu12 S13'
_chemical_formula_weight                 1479           
_chemical_melting_point                  ?
_chemical_compound_source                ?
_chemical_absolute_configuration         ?              

#=======================================================================

# 6. CRYSTAL DATA

_symmetry_cell_setting                   cubic
_symmetry_space_group_name_H-M           'I -4 3 m'
_symmetry_space_group_name_Hall          'I -4;2;3'
loop_
 _symmetry_equiv_pos_site_id                                 
 _symmetry_equiv_pos_as_xyz                                  
 1   x,y,z
 2   y,-x,-z
 3   x,-y,-z
 4   z,x,y
 5   -x,-y,z
 6   -y,-x,z
 7   x,-z,-y
 8   -y,x,-z
 9   -x,y,-z
 10  -z,-x,y
 11  y,x,z
 12  -x,z,-y
 13  z,-x,-y
 14  -x,-z,y
 15  -z,x,-y
 16  x,z,y
 17  -z,y,-x
 18  y,z,x
 19  z,-y,-x
 20  -y,-z,x
 21  -z,-y,x
 22  -y,z,-x
 23  z,y,x
 24  y,-z,-x
 25  1/2+x,1/2+y,1/2+z
 26  1/2+y,1/2-x,1/2-z
 27  1/2+x,1/2-y,1/2-z
 28  1/2+z,1/2+x,1/2+y
 29  1/2-x,1/2-y,1/2+z
 30  1/2-y,1/2-x,1/2+z
 31  1/2+x,1/2-z,1/2-y
 32  1/2-y,1/2+x,1/2-z
 33  1/2-x,1/2+y,1/2-z
 34  1/2-z,1/2-x,1/2+y
 35  1/2+y,1/2+x,1/2+z
 36  1/2-x,1/2+z,1/2-y
 37  1/2+z,1/2-x,1/2-y
 38  1/2-x,1/2-z,1/2+y
 39  1/2-z,1/2+x,1/2-y
 40  1/2+x,1/2+z,1/2+y
 41  1/2-z,1/2+y,1/2-x
 42  1/2+y,1/2+z,1/2+x
 43  1/2+z,1/2-y,1/2-x
 44  1/2-y,1/2-z,1/2+x
 45  1/2-z,1/2-y,1/2+x
 46  1/2-y,1/2+z,1/2-x
 47  1/2+z,1/2+y,1/2+x
 48  1/2+y,1/2-z,1/2-x
_cell_length_a                           10.1662(2)     
_cell_length_b                           10.1662(2)     
_cell_length_c                           10.1662(2)     
_cell_angle_alpha                        90             
_cell_angle_beta                         90             
_cell_angle_gamma                        90             
_cell_volume                             1050.69(4)     
_cell_formula_units_Z                    2

_cell_measurement_reflns_used            ?
_cell_measurement_theta_min              ?
_cell_measurement_theta_max              ?
_cell_measurement_temperature            ?
_cell_special_details                   
; ?
;

_exptl_crystal_density_diffrn            4.67344        
_exptl_crystal_density_meas              ?              
_exptl_crystal_density_method            ?              
_exptl_crystal_F_000                     1376           

_exptl_absorpt_coefficient_mu            10.149         
_exptl_crystal_description               ?
_exptl_crystal_size_max                  ?
_exptl_crystal_size_mid                  ?
_exptl_crystal_size_min                  ?
_exptl_crystal_size_rad                  ?
_exptl_crystal_colour                    ?
_exptl_absorpt_correction_type           Sphere
_exptl_absorpt_process_details          
 '(Jana2000; Petricek, Dusek & Palatinus, 2000)'
_exptl_absorpt_correction_T_min          0.133          
_exptl_absorpt_correction_T_max          0.160          

#=======================================================================

# 7. EXPERIMENTAL DATA

_exptl_special_details                   ?

_diffrn_ambient_temperature              293            
_diffrn_radiation_type                   'Ag K\a'
_diffrn_radiation_wavelength             0.56083
_diffrn_radiation_source                 ?
_diffrn_radiation_monochromator          ?
_diffrn_measurement_device_type          'CAD4'
_diffrn_detector_area_resol_mean         ?
_diffrn_measurement_method               '\q/2\q'

_diffrn_reflns_number                    ?              
_diffrn_reflns_theta_min                 ?              
_diffrn_reflns_theta_max                 ?              
_diffrn_reflns_theta_full                ?              
_diffrn_measured_fraction_theta_max      ?
_diffrn_measured_fraction_theta_full     ?              
_diffrn_reflns_av_R_equivalents          ?              
_diffrn_reflns_av_sigmaI/netI            ?              
_diffrn_reflns_limit_h_min               ?              
_diffrn_reflns_limit_h_max               ?              
_diffrn_reflns_limit_k_min               ?              
_diffrn_reflns_limit_k_max               ?              
_diffrn_reflns_limit_l_min               ?              
_diffrn_reflns_limit_l_max               ?              
_diffrn_reflns_reduction_process         ?

_diffrn_standards_number                 2              
_diffrn_standards_interval_count         ?              
_diffrn_standards_interval_time          ?              
_diffrn_standards_decay_%                2.5
loop_
 _diffrn_standard_refln_index_h                              
 _diffrn_standard_refln_index_k                              
 _diffrn_standard_refln_index_l                              
   8   0   0
   4   4   0

#=======================================================================

# 8. REFINEMENT DATA

_refine_special_details                 
; ?
;

_reflns_number_total                     617            
_reflns_number_gt                        520            
_reflns_threshold_expression             'I>3\s(I)'     

_refine_ls_structure_factor_coef         F              
_refine_ls_R_factor_gt                   0.0320         
_refine_ls_wR_factor_gt                  0.0428         
_refine_ls_R_factor_all                  0.0320         
_refine_ls_wR_factor_ref                 0.0428         
_refine_ls_goodness_of_fit_ref           1.03           
_refine_ls_goodness_of_fit_gt            1.03           
_refine_ls_restrained_S_gt               ?
_refine_ls_restrained_S_all              ?
_refine_ls_number_reflns                 520            
_refine_ls_number_parameters             32             
_refine_ls_number_restraints             ?
_refine_ls_number_constraints            ?
_refine_ls_weighting_scheme              sigma          
_refine_ls_weighting_details             'w=1/(\s^2^(F)+0.001225F^2^)'
_refine_ls_hydrogen_treatment            ?
_refine_ls_shift/su_max                  0.0003         
_refine_ls_shift/su_mean                 0.0001         
_refine_diff_density_max                 0.69           
_refine_diff_density_min                 -0.88          
_refine_ls_extinction_method            
 'B-C type 1 Gaussian isotropic (Becker & Coppens, 1974)'
_refine_ls_extinction_coef               44(3)
_refine_ls_abs_structure_details         ?
_refine_ls_abs_structure_Flack           ?
_refine_ls_abs_structure_Rogers          ?

loop_
 _atom_type_symbol                                           
 _atom_type_scat_dispersion_real                             
 _atom_type_scat_dispersion_imag                             
 _atom_type_scat_source                                      
 Cu   0.324   0.826
 'International Tables Vol C Tables  4.2.6.8 and 6.1.1.1'
 As   0.276   1.331
 'International Tables Vol C Tables  4.2.6.8 and 6.1.1.1'
 S    0.083   0.076
 'International Tables Vol C Tables  4.2.6.8 and 6.1.1.1'

_computing_data_collection               ?
_computing_cell_refinement               ?
_computing_data_reduction               
 'Jana2000 (Petricek, Dusek & Palatinus, 2000)'
_computing_structure_solution            ?
_computing_structure_refinement         
 'Jana2000 (Petricek, Dusek & Palatinus, 2000)'
_computing_molecular_graphics            ?
_computing_publication_material         
 'Jana2000 (Petricek, Dusek & Palatinus, 2000)'

#=======================================================================

# 9. ATOMIC COORDINATES AND DISPLACEMENT PARAMETERS

loop_
 _atom_site_label                                            
 _atom_site_type_symbol                                      
 _atom_site_fract_x                                          
 _atom_site_fract_y                                          
 _atom_site_fract_z                                          
 _atom_site_adp_type                                         
 _atom_site_U_iso_or_equiv                                   
 _atom_site_symmetry_multiplicity                            
 _atom_site_occupancy                                        
 _atom_site_calc_flag                                        
 _atom_site_refinement_flags                                 
 _atom_site_disorder_assembly                                
 _atom_site_disorder_group                                   
  Cu1 Cu 0.5 0.25 0 Uani 0.0219(4) 12 1 d . . .
  Cu2 Cu 0.21807(15) 0 0 Uani 0.0418(7) 12 0.722(7) d . . .
  Cu21 Cu 0.2130(5) 0.0724(7) 0.0724(7) Uani 0.0342(14) 24 0.139(3) d . . .
  S1 S 0.35710(10) -0.11849(8) 0.11849(8) Uani 0.0154(2) 24 1 d . . .
  S2 S 0 0 0 Uani 0.0169(3) 2 1 d . . .
  As1 As 0.24166(5) 0.24166(5) 0.24166(5) Uani 0.01548(10) 8 1 d . . .

loop_
 _atom_site_aniso_label                                      
 _atom_site_aniso_type_symbol                                
 _atom_site_aniso_U_11                                       
 _atom_site_aniso_U_22                                       
 _atom_site_aniso_U_33                                       
 _atom_site_aniso_U_12                                       
 _atom_site_aniso_U_13                                       
 _atom_site_aniso_U_23                                       
 Cu1 Cu 0.0180(5) 0.0298(10) 0.0180(5) 0 0 0
 Cu2 Cu 0.0148(5) 0.0553(14) 0.0553(14) 0 0 0.0324(17)
 Cu21 Cu 0.023(2) 0.040(2) 0.040(2) -0.0143(14) -0.0143(14) 0.015(3)
 S1 S 0.0133(5) 0.0165(3) 0.0165(3) -0.0019(2) 0.0019(2) -0.0006(3)
 S2 S 0.0169(5) 0.0169(5) 0.0169(5) 0 0 0
 As1 As 0.01548(18) 0.01548(18) 0.01548(18) 0.00000(14) 0.00000(14) 0.00000(14)

#=======================================================================

# 10. MOLECULAR GEOMETRY

loop_
 _geom_bond_atom_site_label_1                                
 _geom_bond_atom_site_label_2                                
 _geom_bond_site_symmetry_1                                  
 _geom_bond_site_symmetry_2                                  
 _geom_bond_distance                                         
 _geom_bond_publ_flag                                        
Cu1 S1 . 3_555 2.3128(9) yes
Cu1 S1 . 5_655 2.3128(9) yes
Cu1 S1 . 41_555 2.3128(9) yes
Cu1 S1 . 44_554 2.3128(9) yes
Cu2 Cu21 . . 1.042(7) yes
Cu2 Cu21 . 2_555 2.725(6) yes
Cu2 Cu21 . 3_555 1.042(7) yes
Cu2 Cu21 . 4_555 2.725(6) yes
Cu2 Cu21 . 18_555 2.725(6) yes
Cu2 Cu21 . 19_555 2.725(6) yes
Cu2 S1 . . 2.2136(13) yes
Cu2 S1 . 3_555 2.2136(13) yes
Cu2 S2 . . 2.2170(15) yes
Cu21 Cu21 . 3_555 2.081(10) yes
Cu21 Cu21 . 4_555 2.023(9) yes
Cu21 Cu21 . 18_555 2.023(9) yes
Cu21 S1 . . 2.476(6) yes
Cu21 S1 . 3_555 2.476(6) yes
Cu21 S2 . . 2.403(6) yes
Cu21 As1 . . 2.451(7) yes
S1 As1 . 32_545 2.2475(10) yes


loop_
 _geom_angle_atom_site_label_1                               
 _geom_angle_atom_site_label_2                               
 _geom_angle_atom_site_label_3                               
 _geom_angle_site_symmetry_1                                 
 _geom_angle_site_symmetry_2                                 
 _geom_angle_site_symmetry_3                                 
 _geom_angle                                                 
 _geom_angle_publ_flag                                       
S1 Cu1 S1 3_555 . 5_655 109.37(3) yes
S1 Cu1 S1 3_555 . 41_555 109.52(3) yes
S1 Cu1 S1 3_555 . 44_554 109.52(3) yes
S1 Cu1 S1 5_655 . 3_555 109.37(3) yes
S1 Cu1 S1 5_655 . 41_555 109.52(3) yes
S1 Cu1 S1 5_655 . 44_554 109.52(3) yes
S1 Cu1 S1 41_555 . 3_555 109.52(3) yes
S1 Cu1 S1 41_555 . 5_655 109.52(3) yes
S1 Cu1 S1 41_555 . 44_554 109.37(3) yes
S1 Cu1 S1 44_554 . 3_555 109.52(3) yes
S1 Cu1 S1 44_554 . 5_655 109.52(3) yes
S1 Cu1 S1 44_554 . 41_555 109.37(3) yes
Cu21 Cu2 Cu21 . . 2_555 136.5(4) yes
Cu21 Cu2 Cu21 . . 3_555 174.4(4) yes
Cu21 Cu2 Cu21 . . 4_555 38.9(4) yes
Cu21 Cu2 Cu21 . . 18_555 38.9(4) yes
Cu21 Cu2 Cu21 . . 19_555 136.5(4) yes
Cu21 Cu2 S1 . . . 91.8(3) yes
Cu21 Cu2 S1 . . 3_555 91.8(3) yes
Cu21 Cu2 S2 . . . 87.2(3) yes
Cu21 Cu2 Cu21 2_555 . . 136.5(4) yes
Cu21 Cu2 Cu21 2_555 . 3_555 38.9(4) yes
Cu21 Cu2 Cu21 2_555 . 4_555 114.1(2) yes
Cu21 Cu2 Cu21 2_555 . 18_555 97.7(2) yes
Cu21 Cu2 Cu21 2_555 . 19_555 43.57(19) yes
Cu21 Cu2 S1 2_555 . . 93.53(13) yes
Cu21 Cu2 S1 2_555 . 3_555 129.25(14) yes
Cu21 Cu2 S2 2_555 . . 57.07(14) yes
Cu21 Cu2 Cu21 3_555 . . 174.4(4) yes
Cu21 Cu2 Cu21 3_555 . 2_555 38.9(4) yes
Cu21 Cu2 Cu21 3_555 . 4_555 136.5(4) yes
Cu21 Cu2 Cu21 3_555 . 18_555 136.5(4) yes
Cu21 Cu2 Cu21 3_555 . 19_555 38.9(4) yes
Cu21 Cu2 S1 3_555 . . 91.8(3) yes
Cu21 Cu2 S1 3_555 . 3_555 91.8(3) yes
Cu21 Cu2 S2 3_555 . . 87.2(3) yes
Cu21 Cu2 Cu21 4_555 . . 38.9(4) yes
Cu21 Cu2 Cu21 4_555 . 2_555 114.1(2) yes
Cu21 Cu2 Cu21 4_555 . 3_555 136.5(4) yes
Cu21 Cu2 Cu21 4_555 . 18_555 43.57(19) yes
Cu21 Cu2 Cu21 4_555 . 19_555 97.7(2) yes
Cu21 Cu2 S1 4_555 . . 129.25(14) yes
Cu21 Cu2 S1 4_555 . 3_555 93.53(13) yes
Cu21 Cu2 S2 4_555 . . 57.07(14) yes
Cu21 Cu2 Cu21 18_555 . . 38.9(4) yes
Cu21 Cu2 Cu21 18_555 . 2_555 97.7(2) yes
Cu21 Cu2 Cu21 18_555 . 3_555 136.5(4) yes
Cu21 Cu2 Cu21 18_555 . 4_555 43.57(19) yes
Cu21 Cu2 Cu21 18_555 . 19_555 114.1(2) yes
Cu21 Cu2 S1 18_555 . . 93.53(13) yes
Cu21 Cu2 S1 18_555 . 3_555 129.25(14) yes
Cu21 Cu2 S2 18_555 . . 57.07(14) yes
Cu21 Cu2 Cu21 19_555 . . 136.5(4) yes
Cu21 Cu2 Cu21 19_555 . 2_555 43.57(19) yes
Cu21 Cu2 Cu21 19_555 . 3_555 38.9(4) yes
Cu21 Cu2 Cu21 19_555 . 4_555 97.7(2) yes
Cu21 Cu2 Cu21 19_555 . 18_555 114.1(2) yes
Cu21 Cu2 S1 19_555 . . 129.25(14) yes
Cu21 Cu2 S1 19_555 . 3_555 93.53(13) yes
Cu21 Cu2 S2 19_555 . . 57.07(14) yes
S1 Cu2 S1 . . 3_555 100.63(7) yes
S1 Cu2 S2 . . . 129.68(4) yes
S1 Cu2 S1 3_555 . . 100.63(7) yes
S1 Cu2 S2 3_555 . . 129.68(4) yes
Cu2 Cu21 Cu2 . . 4_555 103.4(4) yes
Cu2 Cu21 Cu2 . . 18_555 103.4(4) yes
Cu2 Cu21 Cu21 . . 3_555 2.8(2) yes
Cu2 Cu21 Cu21 . . 4_555 122.3(5) yes
Cu2 Cu21 Cu21 . . 18_555 122.3(5) yes
Cu2 Cu21 S1 . . . 63.3(3) yes
Cu2 Cu21 S1 . . 3_555 63.3(3) yes
Cu2 Cu21 S2 . . . 67.2(3) yes
Cu2 Cu21 As1 . . . 170.4(4) yes
Cu2 Cu21 Cu2 4_555 . . 103.4(4) yes
Cu2 Cu21 Cu2 4_555 . 18_555 70.24(13) yes
Cu2 Cu21 Cu21 4_555 . 3_555 101.2(3) yes
Cu2 Cu21 Cu21 4_555 . 4_555 18.9(2) yes
Cu2 Cu21 Cu21 4_555 . 18_555 68.2(2) yes
Cu2 Cu21 S1 4_555 . . 161.3(3) yes
Cu2 Cu21 S1 4_555 . 3_555 99.0(2) yes
Cu2 Cu21 S2 4_555 . . 50.76(11) yes
Cu2 Cu21 As1 4_555 . . 84.39(19) yes
Cu2 Cu21 Cu2 18_555 . . 103.4(4) yes
Cu2 Cu21 Cu2 18_555 . 4_555 70.24(13) yes
Cu2 Cu21 Cu21 18_555 . 3_555 101.2(3) yes
Cu2 Cu21 Cu21 18_555 . 4_555 68.2(2) yes
Cu2 Cu21 Cu21 18_555 . 18_555 18.9(2) yes
Cu2 Cu21 S1 18_555 . . 99.0(2) yes
Cu2 Cu21 S1 18_555 . 3_555 161.3(3) yes
Cu2 Cu21 S2 18_555 . . 50.76(11) yes
Cu2 Cu21 As1 18_555 . . 84.39(19) yes
Cu21 Cu21 Cu21 3_555 . 4_555 120.0(4) yes
Cu21 Cu21 Cu21 3_555 . 18_555 120.0(4) yes
Cu21 Cu21 S1 3_555 . . 65.2(2) yes
Cu21 Cu21 S1 3_555 . 3_555 65.2(2) yes
Cu21 Cu21 S2 3_555 . . 64.3(2) yes
Cu21 Cu21 As1 3_555 . . 173.2(3) yes
Cu21 Cu21 Cu21 4_555 . 3_555 120.0(4) yes
Cu21 Cu21 Cu21 4_555 . 18_555 60.0(3) yes
Cu21 Cu21 S1 4_555 . . 166.5(4) yes
Cu21 Cu21 S1 4_555 . 3_555 106.5(3) yes
Cu21 Cu21 S2 4_555 . . 65.1(2) yes
Cu21 Cu21 As1 4_555 . . 65.6(3) yes
Cu21 Cu21 Cu21 18_555 . 3_555 120.0(4) yes
Cu21 Cu21 Cu21 18_555 . 4_555 60.0(3) yes
Cu21 Cu21 S1 18_555 . . 106.5(3) yes
Cu21 Cu21 S1 18_555 . 3_555 166.5(4) yes
Cu21 Cu21 S2 18_555 . . 65.1(2) yes
Cu21 Cu21 As1 18_555 . . 65.6(3) yes
S1 Cu21 S1 . . 3_555 86.96(19) yes
S1 Cu21 S2 . . . 110.6(3) yes
S1 Cu21 As1 . . . 110.3(2) yes
S1 Cu21 S1 3_555 . . 86.96(19) yes
S1 Cu21 S2 3_555 . . 110.6(3) yes
S1 Cu21 As1 3_555 . . 110.3(2) yes
S2 Cu21 As1 . . . 122.5(2) yes
Cu1 S1 Cu1 3_555 . 37_555 101.98(4) yes
Cu1 S1 Cu2 3_555 . . 115.61(4) yes
Cu1 S1 Cu21 3_555 . . 136.55(16) yes
Cu1 S1 Cu21 3_555 . 3_555 94.18(15) yes
Cu1 S1 As1 3_555 . 32_545 104.15(4) yes
Cu1 S1 Cu1 37_555 . 3_555 101.98(4) yes
Cu1 S1 Cu2 37_555 . . 115.61(4) yes
Cu1 S1 Cu21 37_555 . . 94.18(15) yes
Cu1 S1 Cu21 37_555 . 3_555 136.55(16) yes
Cu1 S1 As1 37_555 . 32_545 104.15(4) yes
Cu2 S1 Cu21 . . . 24.87(16) yes
Cu2 S1 Cu21 . . 3_555 24.87(16) yes
Cu2 S1 As1 . . 32_545 113.78(6) yes
Cu21 S1 Cu21 . . 3_555 49.7(2) yes
Cu21 S1 As1 . . 32_545 110.57(15) yes
Cu21 S1 Cu21 3_555 . . 49.7(2) yes
Cu21 S1 As1 3_555 . 32_545 110.57(15) yes
Cu2 S2 Cu2 . . 2_555 90 yes
Cu2 S2 Cu2 . . 4_555 90 yes
Cu2 S2 Cu2 . . 5_555 180 yes
Cu2 S2 Cu2 . . 17_555 90 yes
Cu2 S2 Cu2 . . 18_555 90 yes
Cu2 S2 Cu21 . . . 25.66(16) yes
Cu2 S2 Cu21 . . 2_555 72.17(16) yes
Cu2 S2 Cu21 . . 3_555 25.66(16) yes
Cu2 S2 Cu21 . . 4_555 72.17(16) yes
Cu2 S2 Cu21 . . 5_555 154.34(16) yes
Cu2 S2 Cu21 . . 6_555 107.83(16) yes
Cu2 S2 Cu21 . . 8_555 107.83(16) yes
Cu2 S2 Cu21 . . 9_555 154.34(16) yes
Cu2 S2 Cu21 . . 17_555 107.83(16) yes
Cu2 S2 Cu21 . . 18_555 72.17(16) yes
Cu2 S2 Cu21 . . 19_555 72.17(16) yes
Cu2 S2 Cu21 . . 20_555 107.83(16) yes
Cu2 S2 Cu2 2_555 . . 90 yes
Cu2 S2 Cu2 2_555 . 4_555 180 yes
Cu2 S2 Cu2 2_555 . 5_555 90 yes
Cu2 S2 Cu2 2_555 . 17_555 90 yes
Cu2 S2 Cu2 2_555 . 18_555 90 yes
Cu2 S2 Cu21 2_555 . . 107.83(16) yes
Cu2 S2 Cu21 2_555 . 2_555 25.66(16) yes
Cu2 S2 Cu21 2_555 . 3_555 72.17(16) yes
Cu2 S2 Cu21 2_555 . 4_555 154.34(16) yes
Cu2 S2 Cu21 2_555 . 5_555 72.17(16) yes
Cu2 S2 Cu21 2_555 . 6_555 25.66(16) yes
Cu2 S2 Cu21 2_555 . 8_555 154.34(16) yes
Cu2 S2 Cu21 2_555 . 9_555 107.83(16) yes
Cu2 S2 Cu21 2_555 . 17_555 107.83(16) yes
Cu2 S2 Cu21 2_555 . 18_555 107.83(16) yes
Cu2 S2 Cu21 2_555 . 19_555 72.17(16) yes
Cu2 S2 Cu21 2_555 . 20_555 72.17(16) yes
Cu2 S2 Cu2 4_555 . . 90 yes
Cu2 S2 Cu2 4_555 . 2_555 180 yes
Cu2 S2 Cu2 4_555 . 5_555 90 yes
Cu2 S2 Cu2 4_555 . 17_555 90 yes
Cu2 S2 Cu2 4_555 . 18_555 90 yes
Cu2 S2 Cu21 4_555 . . 72.17(16) yes
Cu2 S2 Cu21 4_555 . 2_555 154.34(16) yes
Cu2 S2 Cu21 4_555 . 3_555 107.83(16) yes
Cu2 S2 Cu21 4_555 . 4_555 25.66(16) yes
Cu2 S2 Cu21 4_555 . 5_555 107.83(16) yes
Cu2 S2 Cu21 4_555 . 6_555 154.34(16) yes
Cu2 S2 Cu21 4_555 . 8_555 25.66(16) yes
Cu2 S2 Cu21 4_555 . 9_555 72.17(16) yes
Cu2 S2 Cu21 4_555 . 17_555 72.17(16) yes
Cu2 S2 Cu21 4_555 . 18_555 72.17(16) yes
Cu2 S2 Cu21 4_555 . 19_555 107.83(16) yes
Cu2 S2 Cu21 4_555 . 20_555 107.83(16) yes
Cu2 S2 Cu2 5_555 . . 180 yes
Cu2 S2 Cu2 5_555 . 2_555 90 yes
Cu2 S2 Cu2 5_555 . 4_555 90 yes
Cu2 S2 Cu2 5_555 . 17_555 90 yes
Cu2 S2 Cu2 5_555 . 18_555 90 yes
Cu2 S2 Cu21 5_555 . . 154.34(16) yes
Cu2 S2 Cu21 5_555 . 2_555 107.83(16) yes
Cu2 S2 Cu21 5_555 . 3_555 154.34(16) yes
Cu2 S2 Cu21 5_555 . 4_555 107.83(16) yes
Cu2 S2 Cu21 5_555 . 5_555 25.66(16) yes
Cu2 S2 Cu21 5_555 . 6_555 72.17(16) yes
Cu2 S2 Cu21 5_555 . 8_555 72.17(16) yes
Cu2 S2 Cu21 5_555 . 9_555 25.66(16) yes
Cu2 S2 Cu21 5_555 . 17_555 72.17(16) yes
Cu2 S2 Cu21 5_555 . 18_555 107.83(16) yes
Cu2 S2 Cu21 5_555 . 19_555 107.83(16) yes
Cu2 S2 Cu21 5_555 . 20_555 72.17(16) yes
Cu2 S2 Cu2 17_555 . . 90 yes
Cu2 S2 Cu2 17_555 . 2_555 90 yes
Cu2 S2 Cu2 17_555 . 4_555 90 yes
Cu2 S2 Cu2 17_555 . 5_555 90 yes
Cu2 S2 Cu2 17_555 . 18_555 180 yes
Cu2 S2 Cu21 17_555 . . 107.83(16) yes
Cu2 S2 Cu21 17_555 . 2_555 72.17(16) yes
Cu2 S2 Cu21 17_555 . 3_555 72.17(16) yes
Cu2 S2 Cu21 17_555 . 4_555 107.83(16) yes
Cu2 S2 Cu21 17_555 . 5_555 107.83(16) yes
Cu2 S2 Cu21 17_555 . 6_555 107.83(16) yes
Cu2 S2 Cu21 17_555 . 8_555 72.17(16) yes
Cu2 S2 Cu21 17_555 . 9_555 72.17(16) yes
Cu2 S2 Cu21 17_555 . 17_555 25.66(16) yes
Cu2 S2 Cu21 17_555 . 18_555 154.34(16) yes
Cu2 S2 Cu21 17_555 . 19_555 25.66(16) yes
Cu2 S2 Cu21 17_555 . 20_555 154.34(16) yes
Cu2 S2 Cu2 18_555 . . 90 yes
Cu2 S2 Cu2 18_555 . 2_555 90 yes
Cu2 S2 Cu2 18_555 . 4_555 90 yes
Cu2 S2 Cu2 18_555 . 5_555 90 yes
Cu2 S2 Cu2 18_555 . 17_555 180 yes
Cu2 S2 Cu21 18_555 . . 72.17(16) yes
Cu2 S2 Cu21 18_555 . 2_555 107.83(16) yes
Cu2 S2 Cu21 18_555 . 3_555 107.83(16) yes
Cu2 S2 Cu21 18_555 . 4_555 72.17(16) yes
Cu2 S2 Cu21 18_555 . 5_555 72.17(16) yes
Cu2 S2 Cu21 18_555 . 6_555 72.17(16) yes
Cu2 S2 Cu21 18_555 . 8_555 107.83(16) yes
Cu2 S2 Cu21 18_555 . 9_555 107.83(16) yes
Cu2 S2 Cu21 18_555 . 17_555 154.34(16) yes
Cu2 S2 Cu21 18_555 . 18_555 25.66(16) yes
Cu2 S2 Cu21 18_555 . 19_555 154.34(16) yes
Cu2 S2 Cu21 18_555 . 20_555 25.66(16) yes
Cu21 S2 Cu21 . . 2_555 95.4(2) yes
Cu21 S2 Cu21 . . 3_555 51.3(2) yes
Cu21 S2 Cu21 . . 4_555 49.8(2) yes
Cu21 S2 Cu21 . . 5_555 144.3(2) yes
Cu21 S2 Cu21 . . 6_555 117.3(2) yes
Cu21 S2 Cu21 . . 8_555 95.4(2) yes
Cu21 S2 Cu21 . . 9_555 144.3(2) yes
Cu21 S2 Cu21 . . 17_555 117.3(2) yes
Cu21 S2 Cu21 . . 18_555 49.8(2) yes
Cu21 S2 Cu21 . . 19_555 95.4(2) yes
Cu21 S2 Cu21 . . 20_555 95.4(2) yes
Cu21 S2 Cu21 2_555 . . 95.4(2) yes
Cu21 S2 Cu21 2_555 . 3_555 49.8(2) yes
Cu21 S2 Cu21 2_555 . 4_555 144.3(2) yes
Cu21 S2 Cu21 2_555 . 5_555 95.4(2) yes
Cu21 S2 Cu21 2_555 . 6_555 51.3(2) yes
Cu21 S2 Cu21 2_555 . 8_555 144.3(2) yes
Cu21 S2 Cu21 2_555 . 9_555 117.3(2) yes
Cu21 S2 Cu21 2_555 . 17_555 95.4(2) yes
Cu21 S2 Cu21 2_555 . 18_555 117.3(2) yes
Cu21 S2 Cu21 2_555 . 19_555 49.8(2) yes
Cu21 S2 Cu21 2_555 . 20_555 95.4(2) yes
Cu21 S2 Cu21 3_555 . . 51.3(2) yes
Cu21 S2 Cu21 3_555 . 2_555 49.8(2) yes
Cu21 S2 Cu21 3_555 . 4_555 95.4(2) yes
Cu21 S2 Cu21 3_555 . 5_555 144.3(2) yes
Cu21 S2 Cu21 3_555 . 6_555 95.4(2) yes
Cu21 S2 Cu21 3_555 . 8_555 117.3(2) yes
Cu21 S2 Cu21 3_555 . 9_555 144.3(2) yes
Cu21 S2 Cu21 3_555 . 17_555 95.4(2) yes
Cu21 S2 Cu21 3_555 . 18_555 95.4(2) yes
Cu21 S2 Cu21 3_555 . 19_555 49.8(2) yes
Cu21 S2 Cu21 3_555 . 20_555 117.3(2) yes
Cu21 S2 Cu21 4_555 . . 49.8(2) yes
Cu21 S2 Cu21 4_555 . 2_555 144.3(2) yes
Cu21 S2 Cu21 4_555 . 3_555 95.4(2) yes
Cu21 S2 Cu21 4_555 . 5_555 117.3(2) yes
Cu21 S2 Cu21 4_555 . 6_555 144.3(2) yes
Cu21 S2 Cu21 4_555 . 8_555 51.3(2) yes
Cu21 S2 Cu21 4_555 . 9_555 95.4(2) yes
Cu21 S2 Cu21 4_555 . 17_555 95.4(2) yes
Cu21 S2 Cu21 4_555 . 18_555 49.8(2) yes
Cu21 S2 Cu21 4_555 . 19_555 117.3(2) yes
Cu21 S2 Cu21 4_555 . 20_555 95.4(2) yes
Cu21 S2 Cu21 5_555 . . 144.3(2) yes
Cu21 S2 Cu21 5_555 . 2_555 95.4(2) yes
Cu21 S2 Cu21 5_555 . 3_555 144.3(2) yes
Cu21 S2 Cu21 5_555 . 4_555 117.3(2) yes
Cu21 S2 Cu21 5_555 . 6_555 49.8(2) yes
Cu21 S2 Cu21 5_555 . 8_555 95.4(2) yes
Cu21 S2 Cu21 5_555 . 9_555 51.3(2) yes
Cu21 S2 Cu21 5_555 . 17_555 95.4(2) yes
Cu21 S2 Cu21 5_555 . 18_555 95.4(2) yes
Cu21 S2 Cu21 5_555 . 19_555 117.3(2) yes
Cu21 S2 Cu21 5_555 . 20_555 49.8(2) yes
Cu21 S2 Cu21 6_555 . . 117.3(2) yes
Cu21 S2 Cu21 6_555 . 2_555 51.3(2) yes
Cu21 S2 Cu21 6_555 . 3_555 95.4(2) yes
Cu21 S2 Cu21 6_555 . 4_555 144.3(2) yes
Cu21 S2 Cu21 6_555 . 5_555 49.8(2) yes
Cu21 S2 Cu21 6_555 . 8_555 144.3(2) yes
Cu21 S2 Cu21 6_555 . 9_555 95.4(2) yes
Cu21 S2 Cu21 6_555 . 17_555 117.3(2) yes
Cu21 S2 Cu21 6_555 . 18_555 95.4(2) yes
Cu21 S2 Cu21 6_555 . 19_555 95.4(2) yes
Cu21 S2 Cu21 6_555 . 20_555 49.8(2) yes
Cu21 S2 Cu21 8_555 . . 95.4(2) yes
Cu21 S2 Cu21 8_555 . 2_555 144.3(2) yes
Cu21 S2 Cu21 8_555 . 3_555 117.3(2) yes
Cu21 S2 Cu21 8_555 . 4_555 51.3(2) yes
Cu21 S2 Cu21 8_555 . 5_555 95.4(2) yes
Cu21 S2 Cu21 8_555 . 6_555 144.3(2) yes
Cu21 S2 Cu21 8_555 . 9_555 49.8(2) yes
Cu21 S2 Cu21 8_555 . 17_555 49.8(2) yes
Cu21 S2 Cu21 8_555 . 18_555 95.4(2) yes
Cu21 S2 Cu21 8_555 . 19_555 95.4(2) yes
Cu21 S2 Cu21 8_555 . 20_555 117.3(2) yes
Cu21 S2 Cu21 9_555 . . 144.3(2) yes
Cu21 S2 Cu21 9_555 . 2_555 117.3(2) yes
Cu21 S2 Cu21 9_555 . 3_555 144.3(2) yes
Cu21 S2 Cu21 9_555 . 4_555 95.4(2) yes
Cu21 S2 Cu21 9_555 . 5_555 51.3(2) yes
Cu21 S2 Cu21 9_555 . 6_555 95.4(2) yes
Cu21 S2 Cu21 9_555 . 8_555 49.8(2) yes
Cu21 S2 Cu21 9_555 . 17_555 49.8(2) yes
Cu21 S2 Cu21 9_555 . 18_555 117.3(2) yes
Cu21 S2 Cu21 9_555 . 19_555 95.4(2) yes
Cu21 S2 Cu21 9_555 . 20_555 95.4(2) yes
Cu21 S2 Cu21 17_555 . . 117.3(2) yes
Cu21 S2 Cu21 17_555 . 2_555 95.4(2) yes
Cu21 S2 Cu21 17_555 . 3_555 95.4(2) yes
Cu21 S2 Cu21 17_555 . 4_555 95.4(2) yes
Cu21 S2 Cu21 17_555 . 5_555 95.4(2) yes
Cu21 S2 Cu21 17_555 . 6_555 117.3(2) yes
Cu21 S2 Cu21 17_555 . 8_555 49.8(2) yes
Cu21 S2 Cu21 17_555 . 9_555 49.8(2) yes
Cu21 S2 Cu21 17_555 . 18_555 144.3(2) yes
Cu21 S2 Cu21 17_555 . 19_555 51.3(2) yes
Cu21 S2 Cu21 17_555 . 20_555 144.3(2) yes
Cu21 S2 Cu21 18_555 . . 49.8(2) yes
Cu21 S2 Cu21 18_555 . 2_555 117.3(2) yes
Cu21 S2 Cu21 18_555 . 3_555 95.4(2) yes
Cu21 S2 Cu21 18_555 . 4_555 49.8(2) yes
Cu21 S2 Cu21 18_555 . 5_555 95.4(2) yes
Cu21 S2 Cu21 18_555 . 6_555 95.4(2) yes
Cu21 S2 Cu21 18_555 . 8_555 95.4(2) yes
Cu21 S2 Cu21 18_555 . 9_555 117.3(2) yes
Cu21 S2 Cu21 18_555 . 17_555 144.3(2) yes
Cu21 S2 Cu21 18_555 . 19_555 144.3(2) yes
Cu21 S2 Cu21 18_555 . 20_555 51.3(2) yes
Cu21 S2 Cu21 19_555 . . 95.4(2) yes
Cu21 S2 Cu21 19_555 . 2_555 49.8(2) yes
Cu21 S2 Cu21 19_555 . 3_555 49.8(2) yes
Cu21 S2 Cu21 19_555 . 4_555 117.3(2) yes
Cu21 S2 Cu21 19_555 . 5_555 117.3(2) yes
Cu21 S2 Cu21 19_555 . 6_555 95.4(2) yes
Cu21 S2 Cu21 19_555 . 8_555 95.4(2) yes
Cu21 S2 Cu21 19_555 . 9_555 95.4(2) yes
Cu21 S2 Cu21 19_555 . 17_555 51.3(2) yes
Cu21 S2 Cu21 19_555 . 18_555 144.3(2) yes
Cu21 S2 Cu21 19_555 . 20_555 144.3(2) yes
Cu21 S2 Cu21 20_555 . . 95.4(2) yes
Cu21 S2 Cu21 20_555 . 2_555 95.4(2) yes
Cu21 S2 Cu21 20_555 . 3_555 117.3(2) yes
Cu21 S2 Cu21 20_555 . 4_555 95.4(2) yes
Cu21 S2 Cu21 20_555 . 5_555 49.8(2) yes
Cu21 S2 Cu21 20_555 . 6_555 49.8(2) yes
Cu21 S2 Cu21 20_555 . 8_555 117.3(2) yes
Cu21 S2 Cu21 20_555 . 9_555 95.4(2) yes
Cu21 S2 Cu21 20_555 . 17_555 144.3(2) yes
Cu21 S2 Cu21 20_555 . 18_555 51.3(2) yes
Cu21 S2 Cu21 20_555 . 19_555 144.3(2) yes
Cu21 As1 Cu21 . . 4_555 48.73(19) yes
Cu21 As1 Cu21 . . 18_555 48.73(19) yes
Cu21 As1 S1 . . 26_555 101.86(15) yes
Cu21 As1 S1 . . 33_555 146.65(13) yes
Cu21 As1 S1 . . 41_555 101.86(15) yes
Cu21 As1 Cu21 4_555 . . 48.73(19) yes
Cu21 As1 Cu21 4_555 . 18_555 48.73(19) yes
Cu21 As1 S1 4_555 . 26_555 146.65(13) yes
Cu21 As1 S1 4_555 . 33_555 101.86(15) yes
Cu21 As1 S1 4_555 . 41_555 101.86(15) yes
Cu21 As1 Cu21 18_555 . . 48.73(19) yes
Cu21 As1 Cu21 18_555 . 4_555 48.73(19) yes
Cu21 As1 S1 18_555 . 26_555 101.86(15) yes
Cu21 As1 S1 18_555 . 33_555 101.86(15) yes
Cu21 As1 S1 18_555 . 41_555 146.65(13) yes
S1 As1 S1 26_555 . 33_555 99.50(4) yes
S1 As1 S1 26_555 . 41_555 99.50(4) yes
S1 As1 S1 33_555 . 26_555 99.50(4) yes
S1 As1 S1 33_555 . 41_555 99.50(4) yes
S1 As1 S1 41_555 . 26_555 99.50(4) yes
S1 As1 S1 41_555 . 33_555 99.50(4) yes

